<?xml version="1.0" encoding="UTF-8"?>

<!-- generated on 2025-07-30 00:37:10 by Eclipse SUMO GUI Version 1.21.0
<sumoConfiguration xmlns:xsi="http://www.w3.org/2001/XMLSchema-instance" xsi:noNamespaceSchemaLocation="http://sumo.dlr.de/xsd/sumoConfiguration.xsd">

    <input>
        <net-file value="../config/dub.net.xml"/>
        <route-files value="../config/dub.rou.xml"/>
        <additional-files value="../config/dub.add.xml"/>
    </input>

    <output>
        <fcd-output value="fcd_simA.xml"/>
        <summary-output value="summary_simA.xml"/>
        <tripinfo-output value="tripinfo_simA.xml"/>
        <statistic-output value="stats_simA.xml"/>
    </output>

    <time>
        <begin value="0"/>
        <end value="3600"/>
        <step-length value="0.1"/>
    </time>

    <report>
        <no-step-log value="true"/>
    </report>

    <traci_server>
        <remote-port value="8813"/>
    </traci_server>

    <gui_only>
        <start value="true"/>
    </gui_only>

</sumoConfiguration>
